; Dummy mdp for grompp before genion (no actual integration is run).
integrator          = steep
nsteps              = 1
emtol               = 1000.0
nstlist             = 10
cutoff-scheme       = Verlet
ns_type             = grid
coulombtype         = PME
rcoulomb            = 1.0
rvdw                = 1.0
pbc                 = xyz
